 Gaussian 09, Revision D.01,
 Gaussian 09:  EM64L-G09RevD.01 24-Apr-2013

 ------------------------------------------------------
 #p gen 5d scf=tight ub3lyp guess=read td=(nstates=100)
 ------------------------------------------------------

 -----------------
 Mn xtal structure
 -----------------
 Symbolic Z-matrix:
 Charge =  1 Multiplicity = 2

                         Standard orientation:
 ---------------------------------------------------------------------
 Center     Atomic      Atomic             Coordinates (Angstroms)
 Number     Number       Type             X           Y           Z
 ---------------------------------------------------------------------
      1         27           0       -0.892471    1.045573    1.018685
      2         27           0       -0.939477   -0.945218   -0.981991
      3          8           0       -0.921103   -0.821519    0.884639
      4          8           0       -0.970349    0.917934   -0.836344
      5          8           0       -0.721040    2.995239    0.884206
      6          8           0       -0.720568   -2.877776   -0.873210
      7          8           0        0.787797   -0.775105    2.930637
      8          8           0       -0.623211    0.996191    2.950206
      9          7           0       -2.833810    1.112226    1.247416
     10          7           0       -2.895697   -1.149657   -1.119548
     11          6           0        0.000000   -3.429889    0.000000
     12          6           0        0.000000   -4.963177    0.000000
     13          6           0        0.000000    3.568941    0.000000
     14          6           0        0.000000    5.048258    0.000000
     15          6           0       -3.443816    0.214165    2.040816
     16          1           0       -2.913089   -0.400553    2.495409
     17          6           0       -4.792241    0.152639    2.218365
     18          1           0       -5.173341   -0.465317    2.799822
     19          6           0       -5.578930    1.042605    1.502642
     20          1           0       -6.505123    1.029652    1.588260
     21          6           0       -4.986537    1.925014    0.687128
     22          1           0       -5.508694    2.524621    0.201935
     23          6           0       -3.619212    1.959015    0.557220
     24          1           0       -3.229840    2.578591   -0.016645
     25          6           0       -3.502176   -2.150260   -0.492581
     26          1           0       -3.007902   -2.721263    0.047490
     27          6           0       -4.887060   -2.350489   -0.636732
     28          1           0       -5.295109   -3.088259   -0.240946
     29          6           0       -5.629163   -1.467540   -1.356691
     30          1           0       -6.548166   -1.577099   -1.442507
     31          6           0       -4.991332   -0.416744   -1.953023
     32          1           0       -5.472903    0.209308   -2.445382
     33          6           0       -3.625848   -0.291534   -1.813855
     34          1           0       -3.199883    0.425188   -2.225719
     35          6           0        0.131671    0.145084    3.488993
     36          6           0        0.284292    0.236293    4.997404
     37          1           0        0.807630    1.008064    5.220719
     38          1           0        0.724267   -0.551669    5.324099
     39          1           0       -0.583380    0.311851    5.403969
     40          8           0        0.721040    2.995239   -0.884206
     41          8           0        0.720568   -2.877776    0.873210
     42         27           0        0.892471    1.045573   -1.018685
     43         27           0        0.939477   -0.945218    0.981991
     44          8           0        0.921103   -0.821519   -0.884639
     45          8           0        0.970349    0.917934    0.836344
     46          8           0       -0.787797   -0.775105   -2.930637
     47          8           0        0.623211    0.996191   -2.950206
     48          7           0        2.833810    1.112226   -1.247416
     49          7           0        2.895697   -1.149657    1.119547
     50          6           0        3.443816    0.214165   -2.040816
     51          1           0        2.913089   -0.400553   -2.495409
     52          6           0        4.792241    0.152639   -2.218365
     53          1           0        5.173341   -0.465317   -2.799822
     54          6           0        5.578930    1.042605   -1.502642
     55          1           0        6.505123    1.029652   -1.588260
     56          6           0        4.986537    1.925014   -0.687128
     57          1           0        5.508694    2.524621   -0.201935
     58          6           0        3.619212    1.959015   -0.557220
     59          1           0        3.229840    2.578591    0.016645
     60          6           0        3.502176   -2.150260    0.492581
     61          1           0        3.007902   -2.721263   -0.047490
     62          6           0        4.887060   -2.350489    0.636731
     63          1           0        5.295109   -3.088259    0.240945
     64          6           0        5.629163   -1.467540    1.356690
     65          1           0        6.548166   -1.577099    1.442507
     66          6           0        4.991332   -0.416744    1.953023
     67          1           0        5.472903    0.209308    2.445382
     68          6           0        3.625848   -0.291534    1.813855
     69          1           0        3.199883    0.425188    2.225719
     70          6           0       -0.131671    0.145085   -3.488993
     71          6           0       -0.284292    0.236294   -4.997404
     72          1           0       -0.807630    1.008065   -5.220719
     73          1           0       -0.724267   -0.551668   -5.324100
     74          1           0        0.583380    0.311852   -5.403969
     75          1           0        1.002893    5.404925    0.109059
     76          1           0       -0.406999    5.404925   -0.923061
     77          1           0       -0.595895    5.404925    0.814002
     78          1           0        0.406999   -5.319843    0.923061
     79          1           0       -1.002893   -5.319843   -0.109059
     80          1           0        0.595895   -5.319843   -0.814002
 ---------------------------------------------------------------------

 SCF Done:  E(UB3LYP) =  -7738.94619727     A.U. after    1 cycles

 Excitation energies and oscillator strengths:

 Excited State   1:  2.004-A      -0.3075 eV    -4031.57 nm  f=-0.0048  <S**2>=0.754
    207B ->216B       -0.13085
    208B ->216B        0.16835
    209B ->216B        0.31273
    210B ->216B        0.17307
    211B ->216B        0.17016
    214B ->216B        0.48638
    215B ->216B        0.79980
    209B <-216B        0.14044
    211B <-216B        0.12154
    214B <-216B        0.17797
    215B <-216B        0.18402
 This state for optimization and/or second-order correction.
 Total Energy, E(TD-HF/TD-KS) =  -7738.95749890
 Copying the excited state density for this state as the 1-particle RhoCI density.

 Excited State   2:  2.011-A      0.2243 eV 5526.42 nm  f=0.0001  <S**2>=0.761
    202B ->216B        0.22915
    204B ->216B       -0.11264
    207B ->216B        0.24297
    208B ->216B       -0.27960
    209B ->216B        0.39258
    210B ->216B        0.40697
    212B ->216B        0.20071
    214B ->216B        0.48684
    215B ->216B       -0.41280

 Excited State   3:  2.012-A      0.2967 eV 4178.80 nm  f=0.0000  <S**2>=0.762
    201B ->216B       -0.26141
    203B ->216B        0.18269
    206B ->216B        0.11106
    207B ->216B       -0.10802
    209B ->216B       -0.47147
    210B ->216B        0.69868
    212B ->216B        0.23164
    213B ->216B        0.10255
    214B ->216B       -0.16580
    215B ->216B        0.13554

 Excited State   4:  2.010-A      0.3986 eV 3110.61 nm  f=0.0001  <S**2>=0.760
    202B ->216B        0.17010
    207B ->216B        0.17332
    209B ->216B        0.11230
    210B ->216B       -0.22635
    211B ->216B       -0.16273
    212B ->216B        0.83132
    214B ->216B       -0.24743
    215B ->216B        0.24149

 Excited State   5:  2.012-A      0.4407 eV 2813.10 nm  f=0.0008  <S**2>=0.762
    211B ->216B        0.89822
    212B ->216B        0.23893
    213B ->216B       -0.29432
    215B ->216B       -0.11581

 Excited State   6:  2.004-A      0.4728 eV 2622.42 nm  f=0.0013  <S**2>=0.754
    201B ->216B        0.11372
    204B ->216B        0.10327
    209B ->216B       -0.11403
    211B ->216B        0.29466
    213B ->216B        0.91669
    214B ->216B        0.14485
    213B <-216B        0.12264

 Excited State   7:  2.014-A      0.5540 eV 2237.82 nm  f=0.0010  <S**2>=0.764
    202B ->216B        0.13134
    209B ->216B       -0.59978
    210B ->216B       -0.34980
    211B ->216B       -0.17448
    212B ->216B        0.17667
    213B ->216B       -0.13297
    214B ->216B        0.61875

 Excited State   8:  2.015-A      0.6189 eV 2003.29 nm  f=0.0019  <S**2>=0.765
    193B ->216B       -0.11817
    202B ->216B        0.23556
    207B ->216B        0.57218
    208B ->216B       -0.52431
    209B ->216B       -0.25681
    212B ->216B       -0.29759
    214B ->216B       -0.11522
    215B ->216B        0.33327

 Excited State   9:  2.022-A      0.7343 eV 1688.58 nm  f=0.0019  <S**2>=0.772
    204B ->216B        0.14470
    207B ->216B        0.64560
    208B ->216B        0.69757

 Excited State  10:  2.096-A      0.9814 eV 1263.29 nm  f=0.0001  <S**2>=0.848
    186B ->216B        0.14244
    199B ->216B       -0.26711
    200B ->216B       -0.10926
    201B ->216B        0.77492
    204B ->216B       -0.21850
    205B ->216B        0.16692
    206B ->216B       -0.16978
    209B ->216B       -0.15856
    210B ->216B        0.24238

 Excited State  11:  2.077-A      1.0997 eV 1127.46 nm  f=0.0001  <S**2>=0.828
    186B ->216B       -0.20025
    199B ->216B       -0.13289
    201B ->216B        0.20845
    203B ->216B        0.62096
    204B ->216B        0.28257
    205B ->216B       -0.15663
    206B ->216B        0.57026
    209B ->216B        0.11033

 Excited State  12:  2.125-A      1.2229 eV 1013.83 nm  f=0.0021  <S**2>=0.879
    216A ->219A       -0.10083
    182B ->216B       -0.11519
    188B ->216B       -0.10319
    201B ->216B       -0.11598
    202B ->216B        0.58601
    203B ->216B        0.26192
    204B ->216B       -0.49874
    207B ->216B       -0.17720
    208B ->216B        0.30186
    212B ->216B       -0.12748
    214B ->216B       -0.20676

 Excited State  13:  2.855-A      1.2826 eV  966.68 nm  f=0.0005  <S**2>=1.788
    191A ->222A       -0.12318
    202A ->222A        0.13159
    212A ->217A        0.11633
    212A ->222A       -0.18808
    213A ->222A       -0.11373
    214A ->217A       -0.11316
    214A ->222A        0.15456
    215A ->217A        0.10016
    215A ->222A       -0.18636
    201B ->216B        0.13984
    202B ->216B        0.37131
    202B ->222B       -0.13735
    203B ->216B       -0.23706
    204B ->216B        0.39213
    206B ->216B        0.11865
    207B ->216B       -0.16541
    209B ->217B       -0.14359
    209B ->222B        0.22436
    210B ->216B        0.13657
    210B ->222B        0.10591
    212B ->217B       -0.11413
    212B ->222B        0.17968
    213B ->216B       -0.11291
    215B ->222B       -0.10700

 Excited State  14:  3.151-A      1.3051 eV  950.01 nm  f=0.0006  <S**2>=2.232
    191A ->222A       -0.10659
    202A ->222A        0.10609
    204A ->225A        0.10015
    212A ->222A       -0.14946
    213A ->222A       -0.11946
    214A ->222A        0.16573
    215A ->222A       -0.14270
    216A ->219A        0.21970
    216A ->225A       -0.11951
    216A ->226A       -0.15192
    202B ->216B       -0.24772
    203B ->216B        0.25648
    204B ->216B       -0.23455
    207B ->216B        0.11875
    207B ->225B       -0.10856
    209B ->217B       -0.11981
    209B ->222B        0.17269
    210B ->222B        0.11785
    212B ->219B       -0.12068
    212B ->222B        0.11971
    214B ->222B        0.14626
    215B ->219B       -0.15359
    215B ->222B       -0.18112
    215B ->225B        0.15214

 Excited State  15:  3.202-A      1.3169 eV  941.46 nm  f=0.0007  <S**2>=2.314
    183A ->219A        0.10554
    204A ->219A        0.13730
    204A ->225A        0.12080
    204A ->226A        0.14496
    211A ->219A       -0.10231
    214A ->219A        0.15863
    216A ->219A        0.37947
    202B ->216B        0.35482
    203B ->216B       -0.12671
    204B ->219B       -0.10180
    204B ->225B       -0.13017
    207B ->216B       -0.15331
    207B ->219B       -0.12790
    207B ->225B       -0.13741
    208B ->219B       -0.13815
    208B ->225B       -0.14074
    211B ->219B        0.11201
    212B ->219B       -0.14652
    214B ->219B        0.16534
    215B ->219B       -0.33129

 Excited State  16:  3.251-A      1.3418 eV  924.02 nm  f=0.0003  <S**2>=2.392
    193A ->219A        0.12257
    199A ->219A        0.10414
    204A ->219A       -0.21959
    206A ->219A       -0.18854
    212A ->222A        0.10831
    216A ->225A       -0.19709
    216A ->226A       -0.27352
    202B ->216B        0.21351
    203B ->216B       -0.17087
    203B ->219B       -0.11137
    204B ->216B        0.22171
    204B ->219B        0.15870
    207B ->219B        0.23420
    208B ->219B        0.22524
    209B ->222B       -0.12023
    213B ->219B       -0.11428
    214B ->225B       -0.12823
    215B ->217B       -0.13020
    215B ->225B        0.29719

 Excited State  17:  3.403-A      1.3943 eV  889.25 nm  f=0.0001  <S**2>=2.645
    202A ->217A       -0.10099
    204A ->222A        0.12200
    205A ->222A        0.12897
    208A ->222A       -0.14343
    209A ->222A       -0.16651
    212A ->217A       -0.17181
    212A ->222A        0.20960
    212A ->224A       -0.14594
    213A ->222A       -0.13860
    214A ->222A        0.10259
    216A ->222A       -0.13092
    201B ->222B        0.11487
    202B ->217B        0.10356
    204B ->222B       -0.14480
    207B ->217B        0.14662
    207B ->222B       -0.13946
    208B ->217B       -0.14098
    208B ->222B        0.14010
    209B ->217B        0.10620
    209B ->222B       -0.13522
    209B ->224B        0.12782
    210B ->217B       -0.11596
    210B ->222B        0.17236
    214B ->222B        0.20509
    215B ->217B       -0.11143

 Excited State  18:  3.408-A      1.4173 eV  874.80 nm  f=0.0001  <S**2>=2.654
    202A ->217A       -0.17046
    211A ->217A       -0.11749
    212A ->222A       -0.10664
    213A ->217A       -0.18588
    213A ->224A        0.12220
    214A ->222A        0.11057
    214A ->225A        0.11459
    215A ->219A        0.13074
    215A ->224A        0.10017
    202B ->217B        0.16504
    204B ->217B       -0.10229
    207B ->217B        0.18498
    208B ->217B       -0.17627
    210B ->217B        0.15309
    211B ->219B       -0.11366
    214B ->222B        0.17791
    215B ->217B       -0.18846

 Excited State  19:  3.433-A      1.4211 eV  872.44 nm  f=0.0001  <S**2>=2.697
    204A ->225A       -0.11395
    206A ->225A        0.11494
    212A ->219A       -0.10976
    213A ->217A        0.11978
    213A ->219A       -0.12324
    213A ->223A        0.14498
    214A ->223A        0.14863
    215A ->219A        0.25515
    203B ->224B        0.11052
    203B ->225B       -0.11220
    210B ->217B       -0.10404
    211B ->219B       -0.25444
    211B ->220B       -0.11480
    211B ->223B        0.13165
    211B ->226B       -0.12283
    212B ->219B       -0.11644
    213B ->224B       -0.13072

 Excited State  20:  3.437-A      1.4467 eV  856.99 nm  f=0.0001  <S**2>=2.702
    204A ->219A       -0.12276
    204A ->223A        0.12173
    206A ->219A        0.17861
    212A ->225A       -0.17925
    213A ->223A        0.10598
    213A ->225A       -0.12535
    214A ->225A       -0.18191
    215A ->225A        0.21455
    202B ->217B        0.10961
    203B ->219B       -0.15077
    211B ->224B        0.25156
    211B ->225B       -0.24229
    213B ->219B        0.18803
    213B ->225B       -0.12655

 Excited State  21:  3.422-A      1.4553 eV  851.93 nm  f=0.0001  <S**2>=2.678
    202A ->217A       -0.12393
    203A ->217A        0.20488
    208A ->222A        0.15804
    209A ->222A        0.13106
    210A ->217A       -0.11937
    211A ->217A       -0.13208
    213A ->222A       -0.14350
    213A ->224A       -0.18380
    214A ->217A        0.13510
    202B ->217B        0.22630
    207B ->222B        0.17569
    208B ->222B       -0.17321
    209B ->217B        0.11203
    210B ->222B        0.13779
    210B ->223B       -0.13080
    214B ->217B        0.22731
    214B ->222B       -0.21373

 Excited State  22:  3.423-A      1.4738 eV  841.27 nm  f=0.0001  <S**2>=2.679
    201A ->226A        0.11061
    205A ->226A        0.14093
    206A ->226A       -0.12270
    209A ->226A       -0.14052
    214A ->219A        0.18709
    214A ->226A       -0.23364
    215A ->223A        0.12234
    215A ->226A       -0.18916
    216A ->219A       -0.11139
    201B ->226B       -0.11481
    204B ->226B       -0.13902
    207B ->225B        0.10304
    208B ->225B        0.13775
    210B ->226B       -0.12711
    212B ->219B       -0.14103
    212B ->221B       -0.10425
    212B ->226B        0.25697
    213B ->225B       -0.17851
    213B ->226B       -0.13918
    215B ->219B        0.15548

 Excited State  23:  3.411-A      1.4888 eV  832.76 nm  f=0.0001  <S**2>=2.658
    201A ->223A       -0.14791
    205A ->219A       -0.11407
    205A ->223A       -0.13312
    206A ->219A        0.16564
    214A ->223A       -0.11575
    214A ->224A       -0.10425
    214A ->226A       -0.17351
    215A ->223A       -0.17708
    215A ->224A       -0.10186
    215A ->226A       -0.11811
    201B ->223B        0.13942
    207B ->219B       -0.13551
    212B ->219B        0.10026
    212B ->223B        0.17540
    212B ->224B        0.15369
    212B ->225B        0.16971
    212B ->226B        0.10871
    213B ->219B        0.22064
    213B ->223B        0.10372

 Excited State  24:  3.449-A      1.5280 eV  811.43 nm  f=0.0000  <S**2>=2.724
    184A ->217A        0.11411
    186A ->217A        0.13716
    198A ->217A       -0.14169
    201A ->217A        0.27828
    203A ->218A       -0.21358
    204A ->217A        0.11863
    210A ->218A        0.11586
    211A ->218A        0.12224
    212A ->217A        0.15931
    213A ->217A       -0.18340
    186B ->217B       -0.12956
    201B ->217B       -0.30726
    202B ->218B       -0.14708
    202B ->220B       -0.12458
    203B ->217B        0.13034
    209B ->217B       -0.16867
    210B ->217B        0.22634
    210B ->222B        0.10882
    214B ->218B       -0.12864
    214B ->220B       -0.10729

 Excited State  25:  3.280-A      1.6167 eV  766.91 nm  f=0.0004  <S**2>=2.439
    195A ->217A       -0.11221
    201A ->218A       -0.18642
    202A ->217A        0.10727
    203A ->217A        0.17636
    204A ->218A       -0.10913
    213A ->218A        0.18338
    201B ->218B        0.13493
    201B ->220B        0.11164
    209B ->217B        0.18316
    210B ->217B        0.10185
    210B ->218B       -0.16461
    210B ->220B       -0.13893
    211B ->217B        0.13739
    214B ->217B        0.24426
    214B ->222B        0.10086
    215B ->217B        0.44800

 Excited State  26:  3.447-A      1.6834 eV  736.51 nm  f=0.0001  <S**2>=2.721
    204A ->226A       -0.10852
    205A ->222A       -0.11490
    212A ->222A       -0.11024
    213A ->217A       -0.11562
    213A ->222A        0.19822
    213A ->224A       -0.16539
    214A ->225A       -0.11283
    215A ->219A        0.19715
    216A ->223A       -0.10329
    201B ->225B       -0.10449
    203B ->225B       -0.10057
    204B ->222B        0.13529
    209B ->222B        0.10748
    210B ->217B        0.12062
    210B ->222B       -0.17807
    210B ->224B        0.14659
    211B ->219B       -0.16143
    211B ->223B       -0.13375
    212B ->219B       -0.12089
    212B ->225B        0.10146
    212B ->226B       -0.10788
    215B ->223B        0.10571

 Excited State  27:  3.442-A      1.7010 eV  728.89 nm  f=0.0001  <S**2>=2.712
    201A ->225A        0.11685
    205A ->225A        0.12886
    213A ->222A       -0.19021
    214A ->219A        0.14330
    214A ->225A       -0.17121
    215A ->219A        0.18326
    215A ->224A        0.12927
    201B ->222B        0.10621
    201B ->225B       -0.10969
    204B ->224B        0.12427
    210B ->222B        0.19229
    210B ->226B        0.12508
    211B ->219B       -0.10424
    212B ->219B       -0.19863
    212B ->220B       -0.10125
    212B ->223B        0.12377
    212B ->225B        0.10698
    213B ->225B       -0.10641

 Excited State  28:  3.421-A      1.7187 eV  721.39 nm  f=0.0001  <S**2>=2.676
    204A ->223A        0.11549
    204A ->224A        0.13981
    205A ->225A        0.10098
    206A ->226A       -0.10527
    212A ->224A        0.10898
    213A ->223A        0.13727
    214A ->219A        0.16786
    214A ->225A       -0.12571
    215A ->223A       -0.11292
    215A ->225A       -0.15440
    216A ->223A        0.11261
    216A ->225A       -0.10122
    201B ->219B        0.11912
    201B ->224B        0.10266
    203B ->219B        0.12867
    204B ->225B       -0.11136
    210B ->223B       -0.11593
    211B ->219B        0.18951
    211B ->223B        0.12202
    211B ->225B        0.13229
    212B ->225B        0.15006
    213B ->225B       -0.13285
    214B ->222B        0.10356
    215B ->224B       -0.11791

 Excited State  29:  3.385-A      1.7335 eV  715.21 nm  f=0.0001  <S**2>=2.615
    201A ->218A       -0.10342
    205A ->223A       -0.13598
    212A ->224A        0.21691
    215A ->223A       -0.10200
    215A ->225A        0.12034
    201B ->226B       -0.10238
    204B ->223B        0.15047
    205B ->216B       -0.14675
    206B ->216B        0.11454
    209B ->224B       -0.14543
    210B ->223B       -0.13293
    212B ->219B       -0.10140
    212B ->224B        0.10701
    212B ->225B       -0.11979
    213B ->219B       -0.16075
    215B ->224B        0.10979

 Excited State  30:  3.333-A      1.7444 eV  710.74 nm  f=0.0001  <S**2>=2.527
    201A ->223A       -0.11295
    205A ->224A       -0.10103
    210A ->219A        0.10218
    212A ->223A        0.15046
    212A ->224A       -0.13916
    214A ->219A        0.18579
    215A ->223A       -0.10111
    215A ->224A       -0.11188
    216A ->225A        0.10610
    201B ->223B        0.12424
    205B ->216B        0.26185
    209B ->220B        0.10114
    209B ->223B       -0.11782
    209B ->225B        0.10040
    211B ->219B        0.20379
    211B ->223B        0.11231
    212B ->219B       -0.13031
    213B ->219B       -0.11225
    213B ->225B       -0.14523

 Excited State  31:  2.206-A      1.7476 eV  709.47 nm  f=0.0000  <S**2>=0.966
    199B ->216B        0.15228
    205B ->216B        0.85989
    206B ->216B        0.33817

 Excited State  32:  3.406-A      1.7629 eV  703.31 nm  f=0.0000  <S**2>=2.651
    204A ->219A        0.10425
    204A ->223A        0.14538
    204A ->226A       -0.11171
    206A ->219A       -0.10682
    212A ->226A        0.15334
    213A ->224A        0.11236
    214A ->226A        0.15024
    215A ->226A       -0.17027
    216A ->224A        0.10795
    216A ->225A       -0.12653
    216A ->226A        0.16068
    203B ->219B        0.10154
    203B ->226B       -0.12197
    205B ->216B       -0.11570
    209B ->226B       -0.11294
    210B ->224B       -0.10261
    211B ->225B        0.16530
    211B ->226B        0.20761
    213B ->219B       -0.17369
    214B ->222B       -0.10011
    215B ->224B       -0.13630
    215B ->226B       -0.12152

 Excited State  33:  3.341-A      1.7751 eV  698.45 nm  f=0.0002  <S**2>=2.540
    201A ->217A        0.19661
    201A ->218A        0.13290
    202A ->218A       -0.12226
    203A ->217A        0.12097
    203A ->218A        0.15071
    211A ->218A       -0.14548
    213A ->217A       -0.14046
    213A ->218A       -0.16604
    215A ->225A        0.10038
    201B ->217B       -0.19113
    202B ->218B        0.11433
    203B ->216B        0.10374
    204B ->216B        0.10409
    206B ->216B       -0.18613
    210B ->217B        0.18983
    210B ->218B        0.13132
    210B ->220B        0.10690
    210B ->222B        0.10214
    212B ->225B       -0.10267
    213B ->219B       -0.10140
    214B ->217B        0.14292
    215B ->217B        0.19757

 Excited State  34:  2.312-A      1.7853 eV  694.46 nm  f=0.0000  <S**2>=1.086
    203B ->216B       -0.43779
    204B ->216B       -0.44216
    205B ->216B       -0.21066
    206B ->216B        0.60575

 Excited State  35:  3.277-A      1.7954 eV  690.56 nm  f=0.0000  <S**2>=2.434
    201A ->219A       -0.12049
    204A ->219A        0.11639
    205A ->219A       -0.10617
    206A ->223A       -0.14152
    206A ->225A       -0.10136
    206A ->226A        0.11983
    212A ->226A        0.13288
    214A ->225A       -0.11677
    215A ->226A       -0.19836
    216A ->225A        0.15540
    198B ->216B       -0.12102
    201B ->219B        0.12853
    203B ->216B        0.14378
    203B ->219B        0.13968
    204B ->216B        0.12234
    206B ->216B       -0.18654
    207B ->226B       -0.10943
    208B ->226B       -0.17778
    211B ->225B        0.16272
    211B ->226B        0.10829
    212B ->225B        0.11831
    213B ->220B        0.10904
    213B ->221B       -0.10984
    213B ->223B       -0.13559
    213B ->226B        0.22512
    215B ->224B        0.14561
    215B ->226B        0.17162

 Excited State  36:  3.235-A      1.8211 eV  680.84 nm  f=0.0004  <S**2>=2.367

 The electronic state is 2-A.
 Alpha  occ. eigenvalues -- -277.65113-277.63332-277.63226-277.62890 -32.97038
 Alpha  occ. eigenvalues --  -32.94900 -32.94749 -32.94416 -28.63408 -28.62951
 Alpha  occ. eigenvalues --  -28.62291 -28.61067 -28.60863 -28.60777 -28.60755
 Alpha  occ. eigenvalues --  -28.60565 -28.60556 -28.60350 -28.60294 -28.60109
 Alpha  occ. eigenvalues --  -19.20521 -19.20253 -19.20180 -19.20109 -19.19991
 Alpha  occ. eigenvalues --  -19.19920 -19.19792 -19.19688 -19.19608 -19.19585
 Alpha  occ. eigenvalues --  -19.19501 -19.19293 -14.45231 -14.44759 -14.44747
 Alpha  occ. eigenvalues --  -14.44694 -10.39145 -10.39085 -10.38868 -10.38446
 Alpha  occ. eigenvalues --  -10.31561 -10.31343 -10.31317 -10.31173 -10.31069
 Alpha  occ. eigenvalues --  -10.30891 -10.30884 -10.30654 -10.28617 -10.28305
 Alpha  occ. eigenvalues --  -10.28279 -10.28272 -10.27920 -10.27775 -10.27738
 Alpha  occ. eigenvalues --  -10.27622 -10.27593 -10.27576 -10.27546 -10.27218
 Alpha  occ. eigenvalues --  -10.24895 -10.24762 -10.21321 -10.21037  -3.87341
 Alpha  occ. eigenvalues --   -3.85187  -3.85025  -3.84681  -2.56433  -2.55574
 Alpha  occ. eigenvalues --   -2.54448  -2.53773  -2.53491  -2.53351  -2.53257
 Alpha  occ. eigenvalues --   -2.53228  -2.53009  -2.52754  -2.52712  -2.52509
 Alpha  occ. eigenvalues --   -1.16602  -1.16408  -1.16005  -1.15502  -1.08135
 Alpha  occ. eigenvalues --   -1.07822  -1.07684  -1.07475  -1.07311  -1.07129
 Alpha  occ. eigenvalues --   -1.06860  -1.06611  -1.04330  -1.00871  -1.00421
 Alpha  occ. eigenvalues --   -0.99790  -0.93227  -0.92953  -0.92855  -0.92747
 Alpha  occ. eigenvalues --   -0.89507  -0.89188  -0.88860  -0.88790  -0.83934
 Alpha  occ. eigenvalues --   -0.83637  -0.82517  -0.81439  -0.77085  -0.76916
 Alpha  occ. eigenvalues --   -0.76915  -0.76701  -0.76316  -0.75986  -0.75934
 Alpha  occ. eigenvalues --   -0.75868  -0.67970  -0.67750  -0.67677  -0.67496
 Alpha  occ. eigenvalues --   -0.64535  -0.64167  -0.63870  -0.63196  -0.62034
 Alpha  occ. eigenvalues --   -0.61875  -0.61791  -0.61588  -0.60675  -0.60523
 Alpha  occ. eigenvalues --   -0.60435  -0.60203  -0.59555  -0.58404  -0.58330
 Alpha  occ. eigenvalues --   -0.57498  -0.56505  -0.56242  -0.56069  -0.55959
 Alpha  occ. eigenvalues --   -0.55830  -0.55735  -0.55474  -0.55406  -0.55340
 Alpha  occ. eigenvalues --   -0.55266  -0.54875  -0.54862  -0.54721  -0.54416
 Alpha  occ. eigenvalues --   -0.54299  -0.54032  -0.53871  -0.53190  -0.51680
 Alpha  occ. eigenvalues --   -0.50869  -0.50644  -0.50499  -0.50024  -0.49898
 Alpha  occ. eigenvalues --   -0.49639  -0.49495  -0.49465  -0.49303  -0.49221
 Alpha  occ. eigenvalues --   -0.49159  -0.49028  -0.48773  -0.48276  -0.48179
 Alpha  occ. eigenvalues --   -0.47967  -0.47846  -0.47347  -0.46560  -0.45794
 Alpha  occ. eigenvalues --   -0.45368  -0.44621  -0.44268  -0.44160  -0.43865
 Alpha  occ. eigenvalues --   -0.43710  -0.43296  -0.43190  -0.42989  -0.42890
 Alpha  occ. eigenvalues --   -0.41702  -0.41266  -0.40834  -0.40747  -0.40654
 Alpha  occ. eigenvalues --   -0.40260  -0.40047  -0.39866  -0.39839  -0.38875
 Alpha  occ. eigenvalues --   -0.38742  -0.38652  -0.38403  -0.38345  -0.38278
 Alpha  occ. eigenvalues --   -0.37339  -0.36992  -0.36791  -0.36515  -0.36262
 Alpha  occ. eigenvalues --   -0.36151  -0.35678  -0.35507  -0.35380  -0.34880
 Alpha  occ. eigenvalues --   -0.34737  -0.34541  -0.34430  -0.34203  -0.34070
 Alpha  occ. eigenvalues --   -0.33549
 Alpha virt. eigenvalues --   -0.16759  -0.15777  -0.15225  -0.14990  -0.14776
 Alpha virt. eigenvalues --   -0.14565  -0.14401  -0.14062  -0.13852  -0.13709
 Alpha virt. eigenvalues --   -0.12725  -0.12574  -0.12346  -0.12165  -0.10150

  Beta  occ. eigenvalues -- -277.65109-277.63329-277.63222-277.62887 -32.96292
  Beta  occ. eigenvalues --  -32.94605 -32.94507 -32.94199 -28.62497 -28.62297
  Beta  occ. eigenvalues --  -28.62023 -28.60667 -28.60563 -28.60554 -28.60493
  Beta  occ. eigenvalues --  -28.60441 -28.60321 -28.60262 -28.60133 -28.60038
  Beta  occ. eigenvalues --  -19.20222 -19.20163 -19.20162 -19.20087 -19.19970
  Beta  occ. eigenvalues --  -19.19771 -19.19662 -19.19574 -19.19563 -19.19482
  Beta  occ. eigenvalues --  -19.19471 -19.19069 -14.45231 -14.44751 -14.44738
  Beta  occ. eigenvalues --  -14.44688 -10.39146 -10.39087 -10.38868 -10.38448
  Beta  occ. eigenvalues --  -10.31563 -10.31344 -10.31318 -10.31174 -10.31071
  Beta  occ. eigenvalues --  -10.30892 -10.30885 -10.30655 -10.28619 -10.28306
  Beta  occ. eigenvalues --  -10.28280 -10.28272 -10.27920 -10.27775 -10.27737
  Beta  occ. eigenvalues --  -10.27622 -10.27593 -10.27576 -10.27546 -10.27217
  Beta  occ. eigenvalues --  -10.24896 -10.24763 -10.21323 -10.21037  -3.85733
  Beta  occ. eigenvalues --   -3.84570  -3.84524  -3.84232  -2.53861  -2.53816
  Beta  occ. eigenvalues --   -2.53709  -2.52816  -2.52738  -2.52727  -2.52662
  Beta  occ. eigenvalues --   -2.52593  -2.52544  -2.52427  -2.52333  -2.52308
  Beta  occ. eigenvalues --   -1.16554  -1.16366  -1.15952  -1.15448  -1.08094
  Beta  occ. eigenvalues --   -1.07778  -1.07655  -1.07442  -1.07266  -1.07113
  Beta  occ. eigenvalues --   -1.06815  -1.06584  -1.03687  -1.00136  -0.99687
  Beta  occ. eigenvalues --   -0.99216  -0.93227  -0.92950  -0.92854  -0.92745
  Beta  occ. eigenvalues --   -0.89509  -0.89187  -0.88861  -0.88791  -0.83933
  Beta  occ. eigenvalues --   -0.83630  -0.82512  -0.81434  -0.77086  -0.76915
  Beta  occ. eigenvalues --   -0.76914  -0.76699  -0.76317  -0.75984  -0.75933
  Beta  occ. eigenvalues --   -0.75867  -0.67967  -0.67744  -0.67673  -0.67491
  Beta  occ. eigenvalues --   -0.64516  -0.64148  -0.63852  -0.63182  -0.62032
  Beta  occ. eigenvalues --   -0.61872  -0.61790  -0.61586  -0.60671  -0.60518
  Beta  occ. eigenvalues --   -0.60433  -0.60199  -0.59489  -0.58382  -0.58308
  Beta  occ. eigenvalues --   -0.57483  -0.56484  -0.56194  -0.56010  -0.55899
  Beta  occ. eigenvalues --   -0.55717  -0.55558  -0.55368  -0.55314  -0.55249
  Beta  occ. eigenvalues --   -0.55210  -0.54832  -0.54797  -0.54658  -0.54367
  Beta  occ. eigenvalues --   -0.54264  -0.53895  -0.53769  -0.53171  -0.51275
  Beta  occ. eigenvalues --   -0.50784  -0.50586  -0.50145  -0.49875  -0.49390
  Beta  occ. eigenvalues --   -0.49334  -0.49317  -0.49236  -0.49145  -0.49000
  Beta  occ. eigenvalues --   -0.48919  -0.48853  -0.48678  -0.48249  -0.48122
  Beta  occ. eigenvalues --   -0.47860  -0.47520  -0.46954  -0.46397  -0.45541
  Beta  occ. eigenvalues --   -0.45224  -0.44242  -0.43999  -0.43834  -0.43204
  Beta  occ. eigenvalues --   -0.43058  -0.42860  -0.42780  -0.42630  -0.42273
  Beta  occ. eigenvalues --   -0.41581  -0.40926  -0.40649  -0.40567  -0.40393
  Beta  occ. eigenvalues --   -0.39937  -0.39735  -0.39424  -0.39371  -0.38622
  Beta  occ. eigenvalues --   -0.38525  -0.38232  -0.38133  -0.38118  -0.37924
  Beta  occ. eigenvalues --   -0.36906  -0.36501  -0.36232  -0.36130  -0.35661
  Beta  occ. eigenvalues --   -0.35398  -0.34653  -0.34513  -0.34297  -0.34157
  Beta  occ. eigenvalues --   -0.33870  -0.33824  -0.33711  -0.33523  -0.32792
  Beta virt. eigenvalues --   -0.26952  -0.16125  -0.15127  -0.14964  -0.14862
  Beta virt. eigenvalues --   -0.14730  -0.14546  -0.14105  -0.13842  -0.13770
  Beta virt. eigenvalues --   -0.13543  -0.12704  -0.12547  -0.12328  -0.12130

 Mulliken charges and spin densities:
               1          2
     1  Co   1.340560   0.298032
     2  Co   1.328560   0.089783
     3  O   -0.794030   0.123611
     4  O   -0.802060   0.088409
     5  O   -0.518183   0.010625
     6  O   -0.506852   0.007533
     7  O   -0.507544   0.007967
     8  O   -0.499772   0.005571
     9  N   -0.498847  -0.001946
    10  N   -0.492535   0.000712
    11  C    0.495435  -0.000557
    12  C   -0.502964  -0.000311
    13  C    0.511973  -0.000871
    14  C   -0.504055  -0.000429
    15  C    0.109621  -0.001375
    16  H    0.163659  -0.000183
    17  C   -0.110465   0.000580
    18  H    0.136751  -0.000030
    19  C   -0.046848  -0.001189
    20  H    0.143061   0.000053
    21  C   -0.116253   0.000552
    22  H    0.134957  -0.000015
    23  C    0.106043  -0.001423
    24  H    0.161994  -0.000084
    25  C    0.112335  -0.000734
    26  H    0.158458  -0.000083
    27  C   -0.129720   0.000363
    28  H    0.135787  -0.000001
    29  C   -0.039950  -0.000601
    30  H    0.142614   0.000030
    31  C   -0.120419   0.000330
    32  H    0.132495   0.000005
    33  C    0.103227  -0.000495
    34  H    0.159905  -0.000169
    35  C    0.461574  -0.000027
    36  C   -0.482335  -0.000735
    37  H    0.198184   0.000183
    38  H    0.193629   0.000064
    39  H    0.190650  -0.000078
    40  O   -0.518132   0.008130
    41  O   -0.508694   0.007412
    42  Co   1.325626   0.080315
    43  Co   1.327589   0.110739
    44  O   -0.807450   0.077392
    45  O   -0.804684   0.074201
    46  O   -0.507130   0.012169
    47  O   -0.500844   0.006785
    48  N   -0.495351   0.001984
    49  N   -0.490228   0.001411
    50  C    0.108064  -0.000727
    51  H    0.163141  -0.000162
    52  C   -0.111158   0.000447
    53  H    0.135176   0.000007
    54  C   -0.048034  -0.000786
    55  H    0.141384   0.000038
    56  C   -0.116739   0.000430
    57  H    0.133006   0.000018
    58  C    0.103337  -0.000819
    59  H    0.159826  -0.000087
    60  C    0.114766  -0.000774
    61  H    0.157997  -0.000087
    62  C   -0.129520   0.000364
    63  H    0.136127   0.000008
    64  C   -0.039374  -0.000624
    65  H    0.142725   0.000032
    66  C   -0.119995   0.000394
    67  H    0.132598   0.000011
    68  C    0.103894  -0.000619
    69  H    0.159601  -0.000194
    70  C    0.459649  -0.001032
    71  C   -0.482682  -0.000136
    72  H    0.196763   0.000160
    73  H    0.191885   0.000108
    74  H    0.190335  -0.000090
    75  H    0.191251  -0.000222
    76  H    0.198616   0.000363
    77  H    0.192092   0.000129
    78  H    0.190327   0.000216
    79  H    0.182734  -0.000103
    80  H    0.192868   0.000134
 Sum of Mulliken charges =   1.00000   1.00000

 Dipole moment (field-independent basis, Debye):
    X=             -0.2737    Y=             -0.4774    Z=              0.2988  Tot=              0.6262
 Quadrupole moment (field-independent basis, Debye-Ang):
   XX=           -138.6497   YY=           -260.5118   ZZ=           -268.0729
   XY=             -0.5822   XZ=             -0.1029   YZ=              0.1617

 Normal termination of Gaussian 09 at Sun Sep  6 18:25:44 2015.
