                         Program Version 3.0.0 -  RELEASE  -
|  1> !PAL8
|  2> ! DFT-Energy
|  3> * xyzfile -2 1 peroxide.xyz *
|  4>
|  5>
|  6>                          ****END OF INPUT****

CARTESIAN COORDINATES (ANGSTROEM)
---------------------------------
  O     18.389891    0.155412   18.640666
  O     15.860977    1.647700   22.583952
  O     11.289665    0.493368   21.179667
  O     15.787638    6.490353   21.752726
  O     16.326803    1.169939   23.933490
  O     15.837797   -3.606565   24.995170
  N     16.849442    0.587877   20.279077
  H     16.591897    0.945426   21.255325
  O     14.190648    3.109459   27.923474
  N     13.247695    1.493983   21.818663
  H     14.234447    1.444380   22.228822
  N     16.552228   -1.481716   24.531837
  H     16.376188   -0.491100   24.169405
  O     21.054990    1.848811   25.128210
  N     18.772442    1.841081   24.950305
  H     17.877211    1.624265   24.409346
  N     14.970206    1.784034   26.227810
  H     15.415109    1.661576   25.264611
  N     14.801769    2.738968   19.469691
  N     16.167269    4.232465   21.788003
  H     16.069825    3.271346   22.249970
  N     17.386702    0.067116   27.055738
  C     15.744229    0.409632   19.351712
  H     14.875913    0.046265   19.919923
  H     16.029255   -0.350401   18.608039
  C     14.363433   -2.219830   23.713015
  C     13.454972   -3.287511   23.625593
  H     13.761462   -4.215747   24.107353
  C     12.232178   -3.156673   22.959272
  C     18.118716    0.466895   19.821791
  C     12.394450    0.443296   21.764822
  C     21.662549    0.862967   21.126362
  C     20.543430    0.629480   20.313185
  H     20.640300    0.358505   19.259787
  C     14.296771    5.416327   26.399871
  H     13.930206    5.379912   27.425474
  C     15.204116    4.149626   24.539979
  H     15.537970    3.202044   24.107566
  C     12.825867   -0.834954   22.450739
  C     13.355351    2.713193   19.644621
  H     12.953461    1.800181   19.178801
  H     12.874215    3.574613   19.128482
  C     11.939461   -1.915510   22.374659
  H     11.007788   -1.735978   21.834294
  C     14.353369    6.605518   25.665873
  C     15.647516   -2.488207   24.467288
  C     16.228867    0.396829   27.876634
  H     16.430731    1.330719   28.423474
  H     16.043761   -0.389625   28.642843
  C     15.372293    1.709362   18.610397
  H     16.290451    2.099000   18.144193
  H     14.676568    1.450410   17.780705
  C     19.237483    0.729896   20.806638
  C     18.613464    2.149176   26.361938
  H     17.679663    2.716620   26.484553
  H     19.459477    2.777689   26.679822
  C     14.713182    4.192229   25.851138
  C     14.929965    0.601447   27.072211
  H     14.751222   -0.272286   26.428984
  H     14.091277    0.704336   27.777851
  C     23.077346    0.737681   20.529958
  C     14.606717    2.980226   26.750649
  C     14.046645   -0.987758   23.126962
  H     14.744232   -0.148376   23.200185
  C     17.776195   -1.679163   25.290735
  H     18.555740   -1.038772   24.853716
  H     18.082154   -2.732417   25.195287
  C     21.433160    1.207405   22.462475
  H     22.244794    1.403526   23.162705
  C     15.764770    5.394297   22.355907
  C     15.269362    5.331430   23.784823
  C     18.574411    0.888925   27.248753
  H     19.467799    0.290180   27.013333
  H     18.673092    1.207127   28.311259
  C     12.903218    2.720541   21.118644
  H     13.377036    3.560997   21.645871
  H     11.810185    2.846790   21.151282
  C     14.843769    6.537532   24.353310
  H     14.915174    7.421716   23.716524
  C     17.611381   -1.347269   26.786878
  H     16.753001   -1.925471   27.162114
  H     18.510195   -1.720079   27.328127
  C     15.426210    4.054402   19.412240
  H     14.671881    4.820622   19.648926
  H     15.797907    4.276325   18.386417
  C     20.132626    1.318799   22.981049
  C     19.030592    1.076969   22.151123
  H     18.014157    1.150376   22.548756
  C     23.279250   -0.691494   19.975793
  H     22.535844   -0.930758   19.202862
  H     24.283004   -0.795626   19.530367
  H     23.178513   -1.436999   20.778523
  C     20.019957    1.690070   24.443591
  C     13.899097    7.960966   26.239374
  C     11.214290   -4.307872   22.852326
  C     16.596764    4.234971   20.399219
  H     17.322229    3.419913   20.264565
  H     17.092056    5.194914   20.186940
  C     23.240569    1.754637   19.376641
  H     22.492244    1.589736   18.589161
  H     23.116460    2.783600   19.745605
  H     24.242272    1.668187   18.922644
  C     24.176438    1.009753   21.572117
  H     24.101778    2.025912   21.985729
  H     24.124438    0.300703   22.411177
  H     25.167547    0.907298   21.101618
  C     13.406682    7.845117   27.692658
  H     13.097531    8.836941   28.060009
  H     12.543518    7.168954   27.777100
  H     14.195567    7.467628   28.359454
  C      9.889041   -3.885045   23.527601
  H      9.138799   -4.689775   23.447009
  H     10.049478   -3.668358   24.594224
  H      9.472339   -2.981051   23.062148
  C     15.080976    8.957303   26.207318
  H     15.460481    9.097534   25.185752
  H     14.767875    9.941277   26.595344
  H     15.914247    8.591618   26.825642
  C     10.944234   -4.622954   21.363159
  H     11.868807   -4.941604   20.859261
  H     10.201213   -5.432785   21.268476
  H     10.560002   -3.742294   20.830212
  C     12.742716    8.520584   25.378850
  H     13.048717    8.648496   24.331266
  H     11.881571    7.836095   25.394100
  H     12.412674    9.500855   25.762432
  C     11.713138   -5.593733   23.534696
  H     12.647491   -5.957826   23.083098
  H     11.896801   -5.438564   24.607830
  H     10.954907   -6.386648   23.431454

 Total Charge           Charge          ....   -2
 Multiplicity           Mult            ....    1
 Number of Electrons    NEL             ....  476
 Basis Dimension        Dim             .... 1932

ORBITAL ENERGIES
----------------

  NO   OCC          E(Eh)            E(eV)
   0   2.0000     -18.907623      -514.5026
   1   2.0000     -18.907499      -514.4992
   2   2.0000     -18.907494      -514.4991
   3   2.0000     -18.907472      -514.4985
   4   2.0000     -18.907402      -514.4966
   5   2.0000     -18.907336      -514.4948
   6   2.0000     -18.888909      -513.9933
   7   2.0000     -18.888859      -513.9920
   8   2.0000     -14.143244      -384.8572
   9   2.0000     -14.143239      -384.8571
  10   2.0000     -14.143165      -384.8551
  11   2.0000     -14.142902      -384.8479
  12   2.0000     -14.142886      -384.8475
  13   2.0000     -14.142858      -384.8467
  14   2.0000     -14.138770      -384.7355
  15   2.0000     -14.138676      -384.7329
  16   2.0000     -10.091171      -274.5947
  17   2.0000     -10.091039      -274.5911
  18   2.0000     -10.091027      -274.5908
  19   2.0000     -10.090970      -274.5893
  20   2.0000     -10.090959      -274.5890
  21   2.0000     -10.090824      -274.5853
  22   2.0000     -10.055778      -273.6316
  23   2.0000     -10.055734      -273.6304
  24   2.0000     -10.055668      -273.6286
  25   2.0000     -10.032023      -272.9852
  26   2.0000     -10.031957      -272.9834
  27   2.0000     -10.031900      -272.9819
  28   2.0000     -10.031891      -272.9816
  29   2.0000     -10.031803      -272.9792
  30   2.0000     -10.031725      -272.9771
  31   2.0000     -10.030835      -272.9529
  32   2.0000     -10.030820      -272.9525
  33   2.0000     -10.030806      -272.9521
  34   2.0000     -10.030779      -272.9514
  35   2.0000     -10.030724      -272.9499
  36   2.0000     -10.030694      -272.9491
  37   2.0000     -10.030499      -272.9438
  38   2.0000     -10.030497      -272.9437
  39   2.0000     -10.030435      -272.9420
  40   2.0000     -10.026026      -272.8220
  41   2.0000     -10.025969      -272.8205
  42   2.0000     -10.025855      -272.8174
  43   2.0000     -10.024655      -272.7847
  44   2.0000     -10.024627      -272.7840
  45   2.0000     -10.024618      -272.7837
  46   2.0000     -10.024597      -272.7831
  47   2.0000     -10.024546      -272.7818
  48   2.0000     -10.024451      -272.7792
  49   2.0000     -10.017809      -272.5984
  50   2.0000     -10.017800      -272.5982
  51   2.0000     -10.017708      -272.5957
  52   2.0000     -10.017288      -272.5843
  53   2.0000     -10.017211      -272.5822
  54   2.0000     -10.017202      -272.5819
  55   2.0000     -10.012921      -272.4654
  56   2.0000     -10.012827      -272.4629
  57   2.0000     -10.012758      -272.4610
  58   2.0000     -10.012332      -272.4494
  59   2.0000     -10.012293      -272.4483
  60   2.0000     -10.012227      -272.4466
  61   2.0000     -10.007299      -272.3125
  62   2.0000     -10.007245      -272.3110
  63   2.0000     -10.007162      -272.3087
  64   2.0000      -0.845606       -23.0101
  65   2.0000      -0.845308       -23.0020
  66   2.0000      -0.845226       -22.9998
  67   2.0000      -0.845089       -22.9960
  68   2.0000      -0.844877       -22.9903
  69   2.0000      -0.844854       -22.9896
  70   2.0000      -0.776175       -21.1208
  71   2.0000      -0.761937       -20.7334
  72   2.0000      -0.760379       -20.6910
  73   2.0000      -0.729269       -19.8444
  74   2.0000      -0.729180       -19.8420
  75   2.0000      -0.728427       -19.8215
  76   2.0000      -0.728338       -19.8191
  77   2.0000      -0.721091       -19.6219
  78   2.0000      -0.719070       -19.5669
  79   2.0000      -0.708430       -19.2774
  80   2.0000      -0.708379       -19.2760
  81   2.0000      -0.707918       -19.2634
  82   2.0000      -0.671793       -18.2804
  83   2.0000      -0.671725       -18.2786
  84   2.0000      -0.671257       -18.2658
  85   2.0000      -0.604072       -16.4376
  86   2.0000      -0.604019       -16.4362
  87   2.0000      -0.598600       -16.2887
  88   2.0000      -0.594535       -16.1781
  89   2.0000      -0.594476       -16.1765
  90   2.0000      -0.584841       -15.9143
  91   2.0000      -0.577897       -15.7254
  92   2.0000      -0.577855       -15.7242
  93   2.0000      -0.571474       -15.5506
  94   2.0000      -0.571422       -15.5492
  95   2.0000      -0.562890       -15.3170
  96   2.0000      -0.555343       -15.1117
  97   2.0000      -0.553593       -15.0640
  98   2.0000      -0.553531       -15.0623
  99   2.0000      -0.553477       -15.0609
 100   2.0000      -0.553423       -15.0594
 101   2.0000      -0.553368       -15.0579
 102   2.0000      -0.531434       -14.4610
 103   2.0000      -0.529646       -14.4124
 104   2.0000      -0.486755       -13.2453
 105   2.0000      -0.486733       -13.2447
 106   2.0000      -0.477914       -13.0047
 107   2.0000      -0.477887       -13.0040
 108   2.0000      -0.465650       -12.6710
 109   2.0000      -0.465071       -12.6552
 110   2.0000      -0.465001       -12.6533
 111   2.0000      -0.456652       -12.4261
 112   2.0000      -0.438197       -11.9239
 113   2.0000      -0.435416       -11.8483
 114   2.0000      -0.435403       -11.8479
 115   2.0000      -0.419081       -11.4038
 116   2.0000      -0.419044       -11.4028
 117   2.0000      -0.410251       -11.1635
 118   2.0000      -0.407831       -11.0976
 119   2.0000      -0.388349       -10.5675
 120   2.0000      -0.388199       -10.5634
 121   2.0000      -0.384527       -10.4635
 122   2.0000      -0.384341       -10.4585
 123   2.0000      -0.374618       -10.1939
 124   2.0000      -0.367076        -9.9886
 125   2.0000      -0.367006        -9.9867
 126   2.0000      -0.364682        -9.9235
 127   2.0000      -0.360042        -9.7972
 128   2.0000      -0.331294        -9.0150
 129   2.0000      -0.331243        -9.0136
 130   2.0000      -0.329467        -8.9653
 131   2.0000      -0.329453        -8.9649
 132   2.0000      -0.326019        -8.8714
 133   2.0000      -0.320301        -8.7158
 134   2.0000      -0.316566        -8.6142
 135   2.0000      -0.316524        -8.6131
 136   2.0000      -0.313729        -8.5370
 137   2.0000      -0.313360        -8.5269
 138   2.0000      -0.313317        -8.5258
 139   2.0000      -0.309761        -8.4290
 140   2.0000      -0.307620        -8.3708
 141   2.0000      -0.307610        -8.3705
 142   2.0000      -0.307541        -8.3686
 143   2.0000      -0.306060        -8.3283
 144   2.0000      -0.305979        -8.3261
 145   2.0000      -0.301796        -8.2123
 146   2.0000      -0.301760        -8.2113
 147   2.0000      -0.296349        -8.0641
 148   2.0000      -0.295773        -8.0484
 149   2.0000      -0.289524        -7.8784
 150   2.0000      -0.287524        -7.8239
 151   2.0000      -0.287441        -7.8217
 152   2.0000      -0.277521        -7.5517
 153   2.0000      -0.277455        -7.5499
 154   2.0000      -0.272382        -7.4119
 155   2.0000      -0.272319        -7.4102
 156   2.0000      -0.269908        -7.3446
 157   2.0000      -0.264610        -7.2004
 158   2.0000      -0.264537        -7.1984
 159   2.0000      -0.264456        -7.1962
 160   2.0000      -0.261694        -7.1211
 161   2.0000      -0.254111        -6.9147
 162   2.0000      -0.254087        -6.9141
 163   2.0000      -0.251475        -6.8430
 164   2.0000      -0.251395        -6.8408
 165   2.0000      -0.250466        -6.8155
 166   2.0000      -0.248600        -6.7648
 167   2.0000      -0.248574        -6.7640
 168   2.0000      -0.242471        -6.5980
 169   2.0000      -0.242429        -6.5968
 170   2.0000      -0.241509        -6.5718
 171   2.0000      -0.238641        -6.4938
 172   2.0000      -0.238579        -6.4921
 173   2.0000      -0.238494        -6.4898
 174   2.0000      -0.235881        -6.4187
 175   2.0000      -0.234993        -6.3945
 176   2.0000      -0.234906        -6.3921
 177   2.0000      -0.233994        -6.3673
 178   2.0000      -0.226799        -6.1715
 179   2.0000      -0.226785        -6.1711
 180   2.0000      -0.224774        -6.1164
 181   2.0000      -0.219282        -5.9670
 182   2.0000      -0.219229        -5.9655
 183   2.0000      -0.218324        -5.9409
 184   2.0000      -0.216974        -5.9042
 185   2.0000      -0.216949        -5.9035
 186   2.0000      -0.210556        -5.7295
 187   2.0000      -0.209902        -5.7117
 188   2.0000      -0.205427        -5.5900
 189   2.0000      -0.205379        -5.5886
 190   2.0000      -0.205050        -5.5797
 191   2.0000      -0.205009        -5.5786
 192   2.0000      -0.204928        -5.5764
 193   2.0000      -0.200618        -5.4591
 194   2.0000      -0.200572        -5.4578
 195   2.0000      -0.199821        -5.4374
 196   2.0000      -0.197593        -5.3768
 197   2.0000      -0.197521        -5.3748
 198   2.0000      -0.187351        -5.0981
 199   2.0000      -0.187311        -5.0970
 200   2.0000      -0.185891        -5.0584
 201   2.0000      -0.185455        -5.0465
 202   2.0000      -0.181786        -4.9467
 203   2.0000      -0.181744        -4.9455
 204   2.0000      -0.177107        -4.8193
 205   2.0000      -0.177043        -4.8176
 206   2.0000      -0.176453        -4.8015
 207   2.0000      -0.175689        -4.7807
 208   2.0000      -0.173057        -4.7091
 209   2.0000      -0.171976        -4.6797
 210   2.0000      -0.171957        -4.6792
 211   2.0000      -0.168551        -4.5865
 212   2.0000      -0.168496        -4.5850
 213   2.0000      -0.152688        -4.1549
 214   2.0000      -0.114624        -3.1191
 215   2.0000      -0.114558        -3.1173
 216   2.0000      -0.092789        -2.5249
 217   2.0000      -0.092067        -2.5053
 218   2.0000      -0.091995        -2.5033
 219   2.0000      -0.088059        -2.3962
 220   2.0000      -0.088005        -2.3947
 221   2.0000      -0.087792        -2.3889
 222   2.0000      -0.086662        -2.3582
 223   2.0000      -0.086568        -2.3556
 224   2.0000      -0.086199        -2.3456
 225   2.0000      -0.081629        -2.2212
 226   2.0000      -0.080612        -2.1936
 227   2.0000      -0.078358        -2.1322
 228   2.0000      -0.078322        -2.1313
 229   2.0000      -0.075594        -2.0570
 230   2.0000      -0.070150        -1.9089
 231   2.0000      -0.070098        -1.9075
 232   2.0000      -0.065800        -1.7905
 233   2.0000      -0.065719        -1.7883
 234   2.0000      -0.038524        -1.0483
 235   2.0000      -0.038402        -1.0450
 236   2.0000      -0.001704        -0.0464
 237   2.0000      -0.001629        -0.0443
 238   0.0000       0.119722         3.2578
 239   0.0000       0.119859         3.2615
 240   0.0000       0.119896         3.2625
 241   0.0000       0.135213         3.6793
 242   0.0000       0.135239         3.6800

MULLIKEN ATOMIC CHARGES
-----------------------
   0 O :   -0.617099
   1 O :   -0.707836
   2 O :   -0.617345
   3 O :   -0.617269
   4 O :   -0.711777
   5 O :   -0.617301
   6 N :   -0.358209
   7 H :    0.294344
   8 O :   -0.617049
   9 N :   -0.355923
  10 H :    0.292302
  11 N :   -0.350556
  12 H :    0.291538
  13 O :   -0.617208
  14 N :   -0.351554
  15 H :    0.295832
  16 N :   -0.350257
  17 H :    0.289865
  18 N :   -0.275200
  19 N :   -0.356211
  20 H :    0.290358
  21 N :   -0.274744
  22 C :   -0.056020
  23 H :    0.131718
  24 H :    0.076551
  25 C :    0.321191
  26 C :   -0.417894
  27 H :    0.086767
  28 C :    0.545565
  29 C :    0.292866
  30 C :    0.293310
  31 C :    0.544204
  32 C :   -0.435914
  33 H :    0.080599
  34 C :   -0.417288
  35 H :    0.086652
  36 C :   -0.390365
  37 H :    0.352982
  38 C :    0.287739
  39 C :   -0.086335
  40 H :    0.099881
  41 H :    0.043056
  42 C :   -0.437700
  43 H :    0.079991
  44 C :    0.547603
  45 C :    0.287973
  46 C :   -0.084717
  47 H :    0.100337
  48 H :    0.042771
  49 C :   -0.085119
  50 H :    0.099836
  51 H :    0.043088
  52 C :    0.284965
  53 C :   -0.057235
  54 H :    0.131297
  55 H :    0.076964
  56 C :    0.319188
  57 C :   -0.056972
  58 H :    0.131359
  59 H :    0.076634
  60 C :    0.075542
  61 C :    0.289722
  62 C :   -0.386590
  63 H :    0.344286
  64 C :   -0.054003
  65 H :    0.130143
  66 H :    0.075800
  67 C :   -0.416846
  68 H :    0.086149
  69 C :    0.293486
  70 C :    0.286777
  71 C :   -0.083156
  72 H :    0.099962
  73 H :    0.042608
  74 C :   -0.056933
  75 H :    0.132630
  76 H :    0.076979
  77 C :   -0.438636
  78 H :    0.080115
  79 C :   -0.085517
  80 H :    0.100473
  81 H :    0.042997
  82 C :   -0.083508
  83 H :    0.099460
  84 H :    0.042904
  85 C :    0.322824
  86 C :   -0.387911
  87 H :    0.344908
  88 C :   -0.355029
  89 H :    0.118365
  90 H :    0.073618
  91 H :    0.107007
  92 C :    0.287578
  93 C :    0.073848
  94 C :    0.074771
  95 C :   -0.056942
  96 H :    0.132139
  97 H :    0.076746
  98 C :   -0.354910
  99 H :    0.117814
 100 H :    0.108105
 101 H :    0.073278
 102 C :   -0.358207
 103 H :    0.116586
 104 H :    0.115908
 105 H :    0.083317
 106 C :   -0.358090
 107 H :    0.083293
 108 H :    0.116354
 109 H :    0.116094
 110 C :   -0.353783
 111 H :    0.073310
 112 H :    0.107483
 113 H :    0.117993
 114 C :   -0.354911
 115 H :    0.118484
 116 H :    0.073492
 117 H :    0.107071
 118 C :   -0.355061
 119 H :    0.107208
 120 H :    0.073533
 121 H :    0.117970
 122 C :   -0.354270
 123 H :    0.117729
 124 H :    0.107756
 125 H :    0.073231
 126 C :   -0.357919
 127 H :    0.116212
 128 H :    0.116587
 129 H :    0.083353
Sum of atomic charges:   -2.0000000

LOEWDIN ATOMIC CHARGES
----------------------
   0 O :   -0.120400
   1 O :   -0.507168
   2 O :   -0.120293
   3 O :   -0.120520
   4 O :   -0.511550
   5 O :   -0.119604
   6 N :    0.065130
   7 H :    0.173071
   8 O :   -0.119335
   9 N :    0.065732
  10 H :    0.173171
  11 N :    0.065113
  12 H :    0.172909
  13 O :   -0.119485
  14 N :    0.065694
  15 H :    0.173131
  16 N :    0.065549
  17 H :    0.173144
  18 N :    0.014162
  19 N :    0.065337
  20 H :    0.172929
  21 N :    0.014119
  22 C :   -0.229806
  23 H :    0.122654
  24 H :    0.120548
  25 C :   -0.098071
  26 C :   -0.063292
  27 H :    0.144036
  28 C :   -0.097150
  29 C :   -0.272877
  30 C :   -0.272268
  31 C :   -0.097097
  32 C :   -0.058246
  33 H :    0.139989
  34 C :   -0.063206
  35 H :    0.144003
  36 C :   -0.047176
  37 H :    0.154295
  38 C :   -0.098645
  39 C :   -0.234330
  40 H :    0.122938
  41 H :    0.102393
  42 C :   -0.058202
  43 H :    0.140001
  44 C :   -0.097174
  45 C :   -0.272539
  46 C :   -0.234339
  47 H :    0.123051
  48 H :    0.102443
  49 C :   -0.234180
  50 H :    0.122946
  51 H :    0.102490
  52 C :   -0.098791
  53 C :   -0.229533
  54 H :    0.122898
  55 H :    0.120660
  56 C :   -0.098153
  57 C :   -0.229651
  58 H :    0.122850
  59 H :    0.120665
  60 C :   -0.275759
  61 C :   -0.272137
  62 C :   -0.047401
  63 H :    0.154262
  64 C :   -0.229939
  65 H :    0.122552
  66 H :    0.120418
  67 C :   -0.063206
  68 H :    0.144000
  69 C :   -0.272783
  70 C :   -0.098561
  71 C :   -0.234278
  72 H :    0.123001
  73 H :    0.102365
  74 C :   -0.229519
  75 H :    0.122892
  76 H :    0.120672
  77 C :   -0.058195
  78 H :    0.139979
  79 C :   -0.234393
  80 H :    0.123107
  81 H :    0.102369
  82 C :   -0.234143
  83 H :    0.122962
  84 H :    0.102439
  85 C :   -0.097969
  86 C :   -0.047552
  87 H :    0.154264
  88 C :   -0.239608
  89 H :    0.114055
  90 H :    0.100945
  91 H :    0.113310
  92 C :   -0.272195
  93 C :   -0.275773
  94 C :   -0.275877
  95 C :   -0.229617
  96 H :    0.122899
  97 H :    0.120537
  98 C :   -0.239462
  99 H :    0.114055
 100 H :    0.113483
 101 H :    0.100931
 102 C :   -0.248090
 103 H :    0.114290
 104 H :    0.114308
 105 H :    0.103613
 106 C :   -0.248093
 107 H :    0.103635
 108 H :    0.114258
 109 H :    0.114319
 110 C :   -0.239402
 111 H :    0.100886
 112 H :    0.113407
 113 H :    0.114177
 114 C :   -0.239564
 115 H :    0.114098
 116 H :    0.100934
 117 H :    0.113290
 118 C :   -0.239570
 119 H :    0.113336
 120 H :    0.100997
 121 H :    0.113932
 122 C :   -0.239450
 123 H :    0.114061
 124 H :    0.113473
 125 H :    0.100877
 126 C :   -0.248086
 127 H :    0.114306
 128 H :    0.114308
 129 H :    0.103650

  Mayer bond orders larger than 0.1
B(  0-O , 29-C ) :   1.7923 B(  0-O , 52-C ) :  -0.1335 B(  1-O ,  4-O ) :   0.7479
B(  1-O ,  7-H ) :   0.1369 B(  1-O , 10-H ) :   0.1344 B(  1-O , 20-H ) :   0.1387
B(  2-O , 30-C ) :   1.7909 B(  2-O , 38-C ) :  -0.1322 B(  3-O , 69-C ) :   1.7910
B(  3-O , 70-C ) :  -0.1326 B(  4-O , 12-H ) :   0.1312 B(  4-O , 15-H ) :   0.1257
B(  4-O , 17-H ) :   0.1307 B(  5-O , 45-C ) :   1.7832 B(  6-N ,  7-H ) :   0.7864
B(  6-N , 22-C ) :   0.9909 B(  6-N , 29-C ) :   1.3946 B(  8-O , 61-C ) :   1.7833
B(  9-N , 10-H ) :   0.7896 B(  9-N , 30-C ) :   1.3946 B(  9-N , 74-C ) :   0.9891
B( 11-N , 12-H ) :   0.7926 B( 11-N , 45-C ) :   1.3917 B( 11-N , 64-C ) :   0.9915
B( 13-O , 92-C ) :   1.7843 B( 14-N , 15-H ) :   0.7938 B( 14-N , 53-C ) :   0.9897
B( 14-N , 92-C ) :   1.3920 B( 16-N , 17-H ) :   0.7943 B( 16-N , 57-C ) :   0.9890
B( 16-N , 61-C ) :   1.3908 B( 18-N , 39-C ) :   0.9824 B( 18-N , 49-C ) :   0.9815
B( 18-N , 82-C ) :   0.9816 B( 19-N , 20-H ) :   0.7882 B( 19-N , 69-C ) :   1.3950
B( 19-N , 95-C ) :   0.9902 B( 21-N , 46-C ) :   0.9813 B( 21-N , 71-C ) :   0.9815
B( 21-N , 79-C ) :   0.9821 B( 22-C , 23-H ) :   0.9532 B( 22-C , 24-H ) :   0.9426
B( 22-C , 49-C ) :   0.9622 B( 25-C , 26-C ) :   1.3341 B( 25-C , 45-C ) :   0.8966
B( 25-C , 62-C ) :   1.5013 B( 26-C , 27-H ) :   0.9918 B( 26-C , 28-C ) :   1.2284
B( 28-C , 42-C ) :   1.2174 B( 28-C , 43-H ) :  -0.1142 B( 28-C , 94-C ) :   0.9379
B( 29-C , 52-C ) :   0.9025 B( 30-C , 38-C ) :   0.9032 B( 31-C , 32-C ) :   1.2193
B( 31-C , 33-H ) :  -0.1136 B( 31-C , 60-C ) :   0.9373 B( 31-C , 67-C ) :   1.2286
B( 32-C , 33-H ) :   0.9825 B( 32-C , 52-C ) :   1.4014 B( 34-C , 35-H ) :   0.9917
B( 34-C , 44-C ) :   1.2281 B( 34-C , 56-C ) :   1.3334 B( 36-C , 37-H ) :   0.7764
B( 36-C , 56-C ) :   1.5026 B( 36-C , 70-C ) :   1.4979 B( 38-C , 42-C ) :   1.3985
B( 38-C , 62-C ) :   1.4980 B( 39-C , 40-H ) :   0.9600 B( 39-C , 41-H ) :   0.9444
B( 39-C , 74-C ) :   0.9621 B( 42-C , 43-H ) :   0.9844 B( 44-C , 77-C ) :   1.2171
B( 44-C , 78-H ) :  -0.1146 B( 44-C , 93-C ) :   0.9369 B( 46-C , 47-H ) :   0.9601
B( 46-C , 48-H ) :   0.9440 B( 46-C , 57-C ) :   0.9625 B( 49-C , 50-H ) :   0.9597
B( 49-C , 51-H ) :   0.9445 B( 52-C , 86-C ) :   1.5008 B( 53-C , 54-H ) :   0.9534
B( 53-C , 55-H ) :   0.9428 B( 53-C , 71-C ) :   0.9619 B( 56-C , 61-C ) :   0.8970
B( 57-C , 58-H ) :   0.9533 B( 57-C , 59-H ) :   0.9427 B( 60-C , 88-C ) :   0.9515
B( 60-C , 98-C ) :   0.9520 B( 60-C ,102-C ) :   0.9606 B( 62-C , 63-H ) :   0.7793
B( 64-C , 65-H ) :   0.9532 B( 64-C , 66-H ) :   0.9425 B( 64-C , 79-C ) :   0.9631
B( 67-C , 68-H ) :   0.9921 B( 67-C , 85-C ) :   1.3342 B( 69-C , 70-C ) :   0.9028
B( 70-C , 77-C ) :   1.3987 B( 71-C , 72-H ) :   0.9603 B( 71-C , 73-H ) :   0.9441
B( 74-C , 75-H ) :   0.9530 B( 74-C , 76-H ) :   0.9426 B( 77-C , 78-H ) :   0.9844
B( 79-C , 80-H ) :   0.9597 B( 79-C , 81-H ) :   0.9442 B( 82-C , 83-H ) :   0.9594
B( 82-C , 84-H ) :   0.9443 B( 82-C , 95-C ) :   0.9622 B( 85-C , 86-C ) :   1.4962
B( 85-C , 92-C ) :   0.8972 B( 86-C , 87-H ) :   0.7783 B( 88-C , 89-H ) :   0.9732
B( 88-C , 90-H ) :   0.9684 B( 88-C , 91-H ) :   0.9802 B( 93-C ,106-C ) :   0.9614
B( 93-C ,114-C ) :   0.9522 B( 93-C ,122-C ) :   0.9524 B( 94-C ,110-C ) :   0.9514
B( 94-C ,118-C ) :   0.9514 B( 94-C ,126-C ) :   0.9613 B( 95-C , 96-H ) :   0.9524
B( 95-C , 97-H ) :   0.9431 B( 98-C , 99-H ) :   0.9734 B( 98-C ,100-H ) :   0.9799
B( 98-C ,101-H ) :   0.9683 B(102-C ,103-H ) :   0.9802 B(102-C ,104-H ) :   0.9796
B(102-C ,105-H ) :   0.9735 B(106-C ,107-H ) :   0.9734 B(106-C ,108-H ) :   0.9798
B(106-C ,109-H ) :   0.9798 B(110-C ,111-H ) :   0.9681 B(110-C ,112-H ) :   0.9799
B(110-C ,113-H ) :   0.9737 B(114-C ,115-H ) :   0.9732 B(114-C ,116-H ) :   0.9684
B(114-C ,117-H ) :   0.9801 B(118-C ,119-H ) :   0.9799 B(118-C ,120-H ) :   0.9685
B(118-C ,121-H ) :   0.9735 B(122-C ,123-H ) :   0.9731 B(122-C ,124-H ) :   0.9800
B(122-C ,125-H ) :   0.9685 B(126-C ,127-H ) :   0.9801 B(126-C ,128-H ) :   0.9797
B(126-C ,129-H ) :   0.9732

FINAL SINGLE POINT ENERGY     -2908.091929380899

DIPOLE MOMENT
-------------
                                X             Y             Z
Electronic contribution:      0.52010      -0.71776       1.24307
Nuclear contribution   :     -0.54835       0.75529      -1.30664
                        -----------------------------------------
Total Dipole Moment    :     -0.02825       0.03753      -0.06358
                        -----------------------------------------
Magnitude (a.u.)       :      0.07905
Magnitude (Debye)      :      0.20092

                             ****ORCA TERMINATED NORMALLY****
TOTAL RUN TIME: 0 days 5 hours 44 minutes 8 seconds 365 msec
