                         Program Version 3.0.0 -  RELEASE  -
|  1> !PAL8
|  2> ! DFT-Energy
|  3> * xyzfile -1 2 superoxide.xyz *
|  4>
|  5>
|  6>                          ****END OF INPUT****

CARTESIAN COORDINATES (ANGSTROEM)
---------------------------------
  O      0.000000    0.000000    0.071550
  O      0.000000    0.000000    1.426450

 Total Charge           Charge          ....   -1
 Multiplicity           Mult            ....    2
 Number of Electrons    NEL             ....   17
 Basis Dimension        Dim             ....   48

ORBITAL ENERGIES
----------------
                 SPIN UP ORBITALS
  NO   OCC          E(Eh)            E(eV)
   0   1.0000     -18.851544      -512.9766
   1   1.0000     -18.851490      -512.9751
   2   1.0000      -0.788785       -21.4639
   3   1.0000      -0.465787       -12.6747
   4   1.0000      -0.134079        -3.6485
   5   1.0000      -0.131634        -3.5819
   6   1.0000      -0.092808        -2.5254
   7   1.0000       0.048070         1.3080
   8   1.0000       0.090350         2.4585
   9   0.0000       0.399573        10.8729
  10   0.0000       0.615107        16.7379
  11   0.0000       0.669759        18.2251
  12   0.0000       0.671491        18.2722
  13   0.0000       0.688468        18.7342

                 SPIN DOWN ORBITALS
  NO   OCC          E(Eh)            E(eV)
   0   1.0000     -18.837129      -512.5843
   1   1.0000     -18.837029      -512.5816
   2   1.0000      -0.757752       -20.6195
   3   1.0000      -0.422186       -11.4883
   4   1.0000      -0.117124        -3.1871
   5   1.0000      -0.080376        -2.1871
   6   1.0000      -0.046434        -1.2635
   7   1.0000       0.105737         2.8772
   8   0.0000       0.212087         5.7712
   9   0.0000       0.415839        11.3155
  10   0.0000       0.623404        16.9637
  11   0.0000       0.681479        18.5440
  12   0.0000       0.692657        18.8482

MULLIKEN ATOMIC CHARGES AND SPIN POPULATIONS
--------------------------------------------
   0 O :   -0.500000    0.500000
   1 O :   -0.500000    0.500000
Sum of atomic charges         :   -1.0000000

LOEWDIN ATOMIC CHARGES AND SPIN POPULATIONS
-------------------------------------------
   0 O :   -0.500000    0.500000
   1 O :   -0.500000    0.500000

  Mayer bond orders larger than 0.1
B(  0-O ,  1-O ) :   1.3058

FINAL SINGLE POINT ENERGY      -150.330560259230

DIPOLE MOMENT
-------------
                                X             Y             Z
Electronic contribution:      0.00000       0.00000       0.00000
Nuclear contribution   :      0.00000       0.00000       0.00000
                        -----------------------------------------
Total Dipole Moment    :      0.00000       0.00000       0.00000
                        -----------------------------------------
Magnitude (a.u.)       :      0.00000
Magnitude (Debye)      :      0.00000

                             ****ORCA TERMINATED NORMALLY****
TOTAL RUN TIME: 0 days 0 hours 0 minutes 20 seconds 133 msec
